
FAST Summary File

Predictions were generated on 03-Jul-2023 at 10:31:17 using OpenFAST, compiled as a 64-bit application using double precision at commit v3.5.0-dirty
  compiled with
    NWTC Subroutine Library
    ElastoDyn
    BeamDyn (unknown version, unknown date) [not called]
    InflowWind (unknown version, unknown date) [not called]
    AeroDyn14 (unknown version, unknown date) [not called]
    AeroDyn
    ServoDyn (unknown version, unknown date) [not called]
    HydroDyn (unknown version, unknown date) [not called]
    SubDyn (unknown version, unknown date) [not called]
    ExtPtfm_MCKF (unknown version, unknown date) [not called]
    MAP (unknown version, unknown date) [not called]
    FEAMooring (unknown version, unknown date) [not called]
    MoorDyn (unknown version, unknown date) [not called]
    OrcaFlexInterface (unknown version, unknown date) [not called]
    IceFloe (unknown version, unknown date) [not called]
    IceDyn (unknown version, unknown date) [not called]


Modeling a land-based turbine
Description from the FAST input file: 
  IEA 15 MW offshore reference model monopile configuration

Interpolation order for input/output time histories: 2 (quadratic)
Number of correction iterations:  0


   Requested Time Steps  
  -------------------------------------------------
  Component          Time Step (s)    Subcycles (-)
  -----------------  ---------------  -------------
  FAST (glue code)    5.000E-03
  ElastoDyn           5.000E-03              1
  AeroDyn             5.000E-03              1
  FAST output files   5.000E-03              1


   Requested Channels in FAST Output File(s)  
  --------------------------------------------
  Number  Name                  Units                 Generated by
  ------  --------------------  --------------------  ------------
       1  Time                  (s)                   OpenFAST
       2  Wind1VelX             (m/s)                 OpenFOAM Integration
       3  Wind1VelY             (m/s)                 OpenFOAM Integration
       4  Wind1VelZ             (m/s)                 OpenFOAM Integration
       5  Azimuth               (deg)                 ElastoDyn
       6  BldPitch1             (deg)                 ElastoDyn
       7  GenSpeed              (rpm)                 ElastoDyn
       8  IPDefl1               (m)                   ElastoDyn
       9  NacYaw                (deg)                 ElastoDyn
      10  OoPDefl1              (m)                   ElastoDyn
      11  RootMxb1              (kN-m)                ElastoDyn
      12  RootMyb1              (kN-m)                ElastoDyn
      13  RootMzb1              (kN-m)                ElastoDyn
      14  RotSpeed              (rpm)                 ElastoDyn
      15  RotThrust             (kN)                  ElastoDyn
      16  RotTorq               (kN-m)                ElastoDyn
      17  TwrBsFxt              (kN)                  ElastoDyn
      18  TwrBsFyt              (kN)                  ElastoDyn
      19  TwrBsFzt              (kN)                  ElastoDyn
      20  TwrBsMxt              (kN-m)                ElastoDyn
      21  TwrBsMyt              (kN-m)                ElastoDyn
      22  TwrBsMzt              (kN-m)                ElastoDyn
      23  YawBrFxp              (kN)                  ElastoDyn
      24  YawBrFyp              (kN)                  ElastoDyn
      25  YawBrFzp              (kN)                  ElastoDyn
      26  YawBrMxp              (kN-m)                ElastoDyn
      27  YawBrMyp              (kN-m)                ElastoDyn
      28  YawBrMzp              (kN-m)                ElastoDyn
      29  YawBrTDxt             (m)                   ElastoDyn
      30  YawBrTDyt             (m)                   ElastoDyn
      31  RtAeroFxh             (N)                   AeroDyn
      32  RtAeroFyh             (N)                   AeroDyn
      33  RtAeroFzh             (N)                   AeroDyn
      34  RtAeroMxh             (N-m)                 AeroDyn
      35  RtAeroMyh             (N-m)                 AeroDyn
      36  RtAeroMzh             (N-m)                 AeroDyn
      37  RtAeroPwr             (W)                   AeroDyn
      38  RtArea                (m^2)                 AeroDyn
      39  RtAeroCp              (-)                   AeroDyn
      40  RtAeroCq              (-)                   AeroDyn
      41  RtAeroCt              (-)                   AeroDyn
      42  RtArea                (m^2)                 AeroDyn
      43  RtSpeed               (rpm)                 AeroDyn
      44  RtTSR                 (-)                   AeroDyn
      45  AB1N001Vrel           (m/s)                 AeroDyn
      46  AB1N002Vrel           (m/s)                 AeroDyn
      47  AB1N003Vrel           (m/s)                 AeroDyn
      48  AB1N004Vrel           (m/s)                 AeroDyn
      49  AB1N005Vrel           (m/s)                 AeroDyn
      50  AB1N006Vrel           (m/s)                 AeroDyn
      51  AB1N007Vrel           (m/s)                 AeroDyn
      52  AB1N008Vrel           (m/s)                 AeroDyn
      53  AB1N009Vrel           (m/s)                 AeroDyn
      54  AB1N010Vrel           (m/s)                 AeroDyn
      55  AB1N011Vrel           (m/s)                 AeroDyn
      56  AB1N012Vrel           (m/s)                 AeroDyn
      57  AB1N013Vrel           (m/s)                 AeroDyn
      58  AB1N014Vrel           (m/s)                 AeroDyn
      59  AB1N015Vrel           (m/s)                 AeroDyn
      60  AB1N016Vrel           (m/s)                 AeroDyn
      61  AB1N017Vrel           (m/s)                 AeroDyn
      62  AB1N018Vrel           (m/s)                 AeroDyn
      63  AB1N019Vrel           (m/s)                 AeroDyn
      64  AB1N020Vrel           (m/s)                 AeroDyn
      65  AB1N021Vrel           (m/s)                 AeroDyn
      66  AB1N022Vrel           (m/s)                 AeroDyn
      67  AB1N023Vrel           (m/s)                 AeroDyn
      68  AB1N024Vrel           (m/s)                 AeroDyn
      69  AB1N025Vrel           (m/s)                 AeroDyn
      70  AB1N026Vrel           (m/s)                 AeroDyn
      71  AB1N027Vrel           (m/s)                 AeroDyn
      72  AB1N028Vrel           (m/s)                 AeroDyn
      73  AB1N029Vrel           (m/s)                 AeroDyn
      74  AB1N030Vrel           (m/s)                 AeroDyn
      75  AB1N031Vrel           (m/s)                 AeroDyn
      76  AB1N032Vrel           (m/s)                 AeroDyn
      77  AB1N033Vrel           (m/s)                 AeroDyn
      78  AB1N034Vrel           (m/s)                 AeroDyn
      79  AB1N035Vrel           (m/s)                 AeroDyn
      80  AB1N036Vrel           (m/s)                 AeroDyn
      81  AB1N037Vrel           (m/s)                 AeroDyn
      82  AB1N038Vrel           (m/s)                 AeroDyn
      83  AB1N039Vrel           (m/s)                 AeroDyn
      84  AB1N040Vrel           (m/s)                 AeroDyn
      85  AB1N041Vrel           (m/s)                 AeroDyn
      86  AB1N042Vrel           (m/s)                 AeroDyn
      87  AB1N043Vrel           (m/s)                 AeroDyn
      88  AB1N044Vrel           (m/s)                 AeroDyn
      89  AB1N045Vrel           (m/s)                 AeroDyn
      90  AB1N046Vrel           (m/s)                 AeroDyn
      91  AB1N047Vrel           (m/s)                 AeroDyn
      92  AB1N048Vrel           (m/s)                 AeroDyn
      93  AB1N049Vrel           (m/s)                 AeroDyn
      94  AB1N050Vrel           (m/s)                 AeroDyn
      95  AB1N001Alpha          (deg)                 AeroDyn
      96  AB1N002Alpha          (deg)                 AeroDyn
      97  AB1N003Alpha          (deg)                 AeroDyn
      98  AB1N004Alpha          (deg)                 AeroDyn
      99  AB1N005Alpha          (deg)                 AeroDyn
     100  AB1N006Alpha          (deg)                 AeroDyn
     101  AB1N007Alpha          (deg)                 AeroDyn
     102  AB1N008Alpha          (deg)                 AeroDyn
     103  AB1N009Alpha          (deg)                 AeroDyn
     104  AB1N010Alpha          (deg)                 AeroDyn
     105  AB1N011Alpha          (deg)                 AeroDyn
     106  AB1N012Alpha          (deg)                 AeroDyn
     107  AB1N013Alpha          (deg)                 AeroDyn
     108  AB1N014Alpha          (deg)                 AeroDyn
     109  AB1N015Alpha          (deg)                 AeroDyn
     110  AB1N016Alpha          (deg)                 AeroDyn
     111  AB1N017Alpha          (deg)                 AeroDyn
     112  AB1N018Alpha          (deg)                 AeroDyn
     113  AB1N019Alpha          (deg)                 AeroDyn
     114  AB1N020Alpha          (deg)                 AeroDyn
     115  AB1N021Alpha          (deg)                 AeroDyn
     116  AB1N022Alpha          (deg)                 AeroDyn
     117  AB1N023Alpha          (deg)                 AeroDyn
     118  AB1N024Alpha          (deg)                 AeroDyn
     119  AB1N025Alpha          (deg)                 AeroDyn
     120  AB1N026Alpha          (deg)                 AeroDyn
     121  AB1N027Alpha          (deg)                 AeroDyn
     122  AB1N028Alpha          (deg)                 AeroDyn
     123  AB1N029Alpha          (deg)                 AeroDyn
     124  AB1N030Alpha          (deg)                 AeroDyn
     125  AB1N031Alpha          (deg)                 AeroDyn
     126  AB1N032Alpha          (deg)                 AeroDyn
     127  AB1N033Alpha          (deg)                 AeroDyn
     128  AB1N034Alpha          (deg)                 AeroDyn
     129  AB1N035Alpha          (deg)                 AeroDyn
     130  AB1N036Alpha          (deg)                 AeroDyn
     131  AB1N037Alpha          (deg)                 AeroDyn
     132  AB1N038Alpha          (deg)                 AeroDyn
     133  AB1N039Alpha          (deg)                 AeroDyn
     134  AB1N040Alpha          (deg)                 AeroDyn
     135  AB1N041Alpha          (deg)                 AeroDyn
     136  AB1N042Alpha          (deg)                 AeroDyn
     137  AB1N043Alpha          (deg)                 AeroDyn
     138  AB1N044Alpha          (deg)                 AeroDyn
     139  AB1N045Alpha          (deg)                 AeroDyn
     140  AB1N046Alpha          (deg)                 AeroDyn
     141  AB1N047Alpha          (deg)                 AeroDyn
     142  AB1N048Alpha          (deg)                 AeroDyn
     143  AB1N049Alpha          (deg)                 AeroDyn
     144  AB1N050Alpha          (deg)                 AeroDyn
     145  AB1N001Cn             (-)                   AeroDyn
     146  AB1N002Cn             (-)                   AeroDyn
     147  AB1N003Cn             (-)                   AeroDyn
     148  AB1N004Cn             (-)                   AeroDyn
     149  AB1N005Cn             (-)                   AeroDyn
     150  AB1N006Cn             (-)                   AeroDyn
     151  AB1N007Cn             (-)                   AeroDyn
     152  AB1N008Cn             (-)                   AeroDyn
     153  AB1N009Cn             (-)                   AeroDyn
     154  AB1N010Cn             (-)                   AeroDyn
     155  AB1N011Cn             (-)                   AeroDyn
     156  AB1N012Cn             (-)                   AeroDyn
     157  AB1N013Cn             (-)                   AeroDyn
     158  AB1N014Cn             (-)                   AeroDyn
     159  AB1N015Cn             (-)                   AeroDyn
     160  AB1N016Cn             (-)                   AeroDyn
     161  AB1N017Cn             (-)                   AeroDyn
     162  AB1N018Cn             (-)                   AeroDyn
     163  AB1N019Cn             (-)                   AeroDyn
     164  AB1N020Cn             (-)                   AeroDyn
     165  AB1N021Cn             (-)                   AeroDyn
     166  AB1N022Cn             (-)                   AeroDyn
     167  AB1N023Cn             (-)                   AeroDyn
     168  AB1N024Cn             (-)                   AeroDyn
     169  AB1N025Cn             (-)                   AeroDyn
     170  AB1N026Cn             (-)                   AeroDyn
     171  AB1N027Cn             (-)                   AeroDyn
     172  AB1N028Cn             (-)                   AeroDyn
     173  AB1N029Cn             (-)                   AeroDyn
     174  AB1N030Cn             (-)                   AeroDyn
     175  AB1N031Cn             (-)                   AeroDyn
     176  AB1N032Cn             (-)                   AeroDyn
     177  AB1N033Cn             (-)                   AeroDyn
     178  AB1N034Cn             (-)                   AeroDyn
     179  AB1N035Cn             (-)                   AeroDyn
     180  AB1N036Cn             (-)                   AeroDyn
     181  AB1N037Cn             (-)                   AeroDyn
     182  AB1N038Cn             (-)                   AeroDyn
     183  AB1N039Cn             (-)                   AeroDyn
     184  AB1N040Cn             (-)                   AeroDyn
     185  AB1N041Cn             (-)                   AeroDyn
     186  AB1N042Cn             (-)                   AeroDyn
     187  AB1N043Cn             (-)                   AeroDyn
     188  AB1N044Cn             (-)                   AeroDyn
     189  AB1N045Cn             (-)                   AeroDyn
     190  AB1N046Cn             (-)                   AeroDyn
     191  AB1N047Cn             (-)                   AeroDyn
     192  AB1N048Cn             (-)                   AeroDyn
     193  AB1N049Cn             (-)                   AeroDyn
     194  AB1N050Cn             (-)                   AeroDyn
     195  AB1N001Ct             (-)                   AeroDyn
     196  AB1N002Ct             (-)                   AeroDyn
     197  AB1N003Ct             (-)                   AeroDyn
     198  AB1N004Ct             (-)                   AeroDyn
     199  AB1N005Ct             (-)                   AeroDyn
     200  AB1N006Ct             (-)                   AeroDyn
     201  AB1N007Ct             (-)                   AeroDyn
     202  AB1N008Ct             (-)                   AeroDyn
     203  AB1N009Ct             (-)                   AeroDyn
     204  AB1N010Ct             (-)                   AeroDyn
     205  AB1N011Ct             (-)                   AeroDyn
     206  AB1N012Ct             (-)                   AeroDyn
     207  AB1N013Ct             (-)                   AeroDyn
     208  AB1N014Ct             (-)                   AeroDyn
     209  AB1N015Ct             (-)                   AeroDyn
     210  AB1N016Ct             (-)                   AeroDyn
     211  AB1N017Ct             (-)                   AeroDyn
     212  AB1N018Ct             (-)                   AeroDyn
     213  AB1N019Ct             (-)                   AeroDyn
     214  AB1N020Ct             (-)                   AeroDyn
     215  AB1N021Ct             (-)                   AeroDyn
     216  AB1N022Ct             (-)                   AeroDyn
     217  AB1N023Ct             (-)                   AeroDyn
     218  AB1N024Ct             (-)                   AeroDyn
     219  AB1N025Ct             (-)                   AeroDyn
     220  AB1N026Ct             (-)                   AeroDyn
     221  AB1N027Ct             (-)                   AeroDyn
     222  AB1N028Ct             (-)                   AeroDyn
     223  AB1N029Ct             (-)                   AeroDyn
     224  AB1N030Ct             (-)                   AeroDyn
     225  AB1N031Ct             (-)                   AeroDyn
     226  AB1N032Ct             (-)                   AeroDyn
     227  AB1N033Ct             (-)                   AeroDyn
     228  AB1N034Ct             (-)                   AeroDyn
     229  AB1N035Ct             (-)                   AeroDyn
     230  AB1N036Ct             (-)                   AeroDyn
     231  AB1N037Ct             (-)                   AeroDyn
     232  AB1N038Ct             (-)                   AeroDyn
     233  AB1N039Ct             (-)                   AeroDyn
     234  AB1N040Ct             (-)                   AeroDyn
     235  AB1N041Ct             (-)                   AeroDyn
     236  AB1N042Ct             (-)                   AeroDyn
     237  AB1N043Ct             (-)                   AeroDyn
     238  AB1N044Ct             (-)                   AeroDyn
     239  AB1N045Ct             (-)                   AeroDyn
     240  AB1N046Ct             (-)                   AeroDyn
     241  AB1N047Ct             (-)                   AeroDyn
     242  AB1N048Ct             (-)                   AeroDyn
     243  AB1N049Ct             (-)                   AeroDyn
     244  AB1N050Ct             (-)                   AeroDyn
     245  AB1N001Fn             (N/m)                 AeroDyn
     246  AB1N002Fn             (N/m)                 AeroDyn
     247  AB1N003Fn             (N/m)                 AeroDyn
     248  AB1N004Fn             (N/m)                 AeroDyn
     249  AB1N005Fn             (N/m)                 AeroDyn
     250  AB1N006Fn             (N/m)                 AeroDyn
     251  AB1N007Fn             (N/m)                 AeroDyn
     252  AB1N008Fn             (N/m)                 AeroDyn
     253  AB1N009Fn             (N/m)                 AeroDyn
     254  AB1N010Fn             (N/m)                 AeroDyn
     255  AB1N011Fn             (N/m)                 AeroDyn
     256  AB1N012Fn             (N/m)                 AeroDyn
     257  AB1N013Fn             (N/m)                 AeroDyn
     258  AB1N014Fn             (N/m)                 AeroDyn
     259  AB1N015Fn             (N/m)                 AeroDyn
     260  AB1N016Fn             (N/m)                 AeroDyn
     261  AB1N017Fn             (N/m)                 AeroDyn
     262  AB1N018Fn             (N/m)                 AeroDyn
     263  AB1N019Fn             (N/m)                 AeroDyn
     264  AB1N020Fn             (N/m)                 AeroDyn
     265  AB1N021Fn             (N/m)                 AeroDyn
     266  AB1N022Fn             (N/m)                 AeroDyn
     267  AB1N023Fn             (N/m)                 AeroDyn
     268  AB1N024Fn             (N/m)                 AeroDyn
     269  AB1N025Fn             (N/m)                 AeroDyn
     270  AB1N026Fn             (N/m)                 AeroDyn
     271  AB1N027Fn             (N/m)                 AeroDyn
     272  AB1N028Fn             (N/m)                 AeroDyn
     273  AB1N029Fn             (N/m)                 AeroDyn
     274  AB1N030Fn             (N/m)                 AeroDyn
     275  AB1N031Fn             (N/m)                 AeroDyn
     276  AB1N032Fn             (N/m)                 AeroDyn
     277  AB1N033Fn             (N/m)                 AeroDyn
     278  AB1N034Fn             (N/m)                 AeroDyn
     279  AB1N035Fn             (N/m)                 AeroDyn
     280  AB1N036Fn             (N/m)                 AeroDyn
     281  AB1N037Fn             (N/m)                 AeroDyn
     282  AB1N038Fn             (N/m)                 AeroDyn
     283  AB1N039Fn             (N/m)                 AeroDyn
     284  AB1N040Fn             (N/m)                 AeroDyn
     285  AB1N041Fn             (N/m)                 AeroDyn
     286  AB1N042Fn             (N/m)                 AeroDyn
     287  AB1N043Fn             (N/m)                 AeroDyn
     288  AB1N044Fn             (N/m)                 AeroDyn
     289  AB1N045Fn             (N/m)                 AeroDyn
     290  AB1N046Fn             (N/m)                 AeroDyn
     291  AB1N047Fn             (N/m)                 AeroDyn
     292  AB1N048Fn             (N/m)                 AeroDyn
     293  AB1N049Fn             (N/m)                 AeroDyn
     294  AB1N050Fn             (N/m)                 AeroDyn
     295  AB1N001Ft             (N/m)                 AeroDyn
     296  AB1N002Ft             (N/m)                 AeroDyn
     297  AB1N003Ft             (N/m)                 AeroDyn
     298  AB1N004Ft             (N/m)                 AeroDyn
     299  AB1N005Ft             (N/m)                 AeroDyn
     300  AB1N006Ft             (N/m)                 AeroDyn
     301  AB1N007Ft             (N/m)                 AeroDyn
     302  AB1N008Ft             (N/m)                 AeroDyn
     303  AB1N009Ft             (N/m)                 AeroDyn
     304  AB1N010Ft             (N/m)                 AeroDyn
     305  AB1N011Ft             (N/m)                 AeroDyn
     306  AB1N012Ft             (N/m)                 AeroDyn
     307  AB1N013Ft             (N/m)                 AeroDyn
     308  AB1N014Ft             (N/m)                 AeroDyn
     309  AB1N015Ft             (N/m)                 AeroDyn
     310  AB1N016Ft             (N/m)                 AeroDyn
     311  AB1N017Ft             (N/m)                 AeroDyn
     312  AB1N018Ft             (N/m)                 AeroDyn
     313  AB1N019Ft             (N/m)                 AeroDyn
     314  AB1N020Ft             (N/m)                 AeroDyn
     315  AB1N021Ft             (N/m)                 AeroDyn
     316  AB1N022Ft             (N/m)                 AeroDyn
     317  AB1N023Ft             (N/m)                 AeroDyn
     318  AB1N024Ft             (N/m)                 AeroDyn
     319  AB1N025Ft             (N/m)                 AeroDyn
     320  AB1N026Ft             (N/m)                 AeroDyn
     321  AB1N027Ft             (N/m)                 AeroDyn
     322  AB1N028Ft             (N/m)                 AeroDyn
     323  AB1N029Ft             (N/m)                 AeroDyn
     324  AB1N030Ft             (N/m)                 AeroDyn
     325  AB1N031Ft             (N/m)                 AeroDyn
     326  AB1N032Ft             (N/m)                 AeroDyn
     327  AB1N033Ft             (N/m)                 AeroDyn
     328  AB1N034Ft             (N/m)                 AeroDyn
     329  AB1N035Ft             (N/m)                 AeroDyn
     330  AB1N036Ft             (N/m)                 AeroDyn
     331  AB1N037Ft             (N/m)                 AeroDyn
     332  AB1N038Ft             (N/m)                 AeroDyn
     333  AB1N039Ft             (N/m)                 AeroDyn
     334  AB1N040Ft             (N/m)                 AeroDyn
     335  AB1N041Ft             (N/m)                 AeroDyn
     336  AB1N042Ft             (N/m)                 AeroDyn
     337  AB1N043Ft             (N/m)                 AeroDyn
     338  AB1N044Ft             (N/m)                 AeroDyn
     339  AB1N045Ft             (N/m)                 AeroDyn
     340  AB1N046Ft             (N/m)                 AeroDyn
     341  AB1N047Ft             (N/m)                 AeroDyn
     342  AB1N048Ft             (N/m)                 AeroDyn
     343  AB1N049Ft             (N/m)                 AeroDyn
     344  AB1N050Ft             (N/m)                 AeroDyn
     345  AB1N001Fx             (N/m)                 AeroDyn
     346  AB1N002Fx             (N/m)                 AeroDyn
     347  AB1N003Fx             (N/m)                 AeroDyn
     348  AB1N004Fx             (N/m)                 AeroDyn
     349  AB1N005Fx             (N/m)                 AeroDyn
     350  AB1N006Fx             (N/m)                 AeroDyn
     351  AB1N007Fx             (N/m)                 AeroDyn
     352  AB1N008Fx             (N/m)                 AeroDyn
     353  AB1N009Fx             (N/m)                 AeroDyn
     354  AB1N010Fx             (N/m)                 AeroDyn
     355  AB1N011Fx             (N/m)                 AeroDyn
     356  AB1N012Fx             (N/m)                 AeroDyn
     357  AB1N013Fx             (N/m)                 AeroDyn
     358  AB1N014Fx             (N/m)                 AeroDyn
     359  AB1N015Fx             (N/m)                 AeroDyn
     360  AB1N016Fx             (N/m)                 AeroDyn
     361  AB1N017Fx             (N/m)                 AeroDyn
     362  AB1N018Fx             (N/m)                 AeroDyn
     363  AB1N019Fx             (N/m)                 AeroDyn
     364  AB1N020Fx             (N/m)                 AeroDyn
     365  AB1N021Fx             (N/m)                 AeroDyn
     366  AB1N022Fx             (N/m)                 AeroDyn
     367  AB1N023Fx             (N/m)                 AeroDyn
     368  AB1N024Fx             (N/m)                 AeroDyn
     369  AB1N025Fx             (N/m)                 AeroDyn
     370  AB1N026Fx             (N/m)                 AeroDyn
     371  AB1N027Fx             (N/m)                 AeroDyn
     372  AB1N028Fx             (N/m)                 AeroDyn
     373  AB1N029Fx             (N/m)                 AeroDyn
     374  AB1N030Fx             (N/m)                 AeroDyn
     375  AB1N031Fx             (N/m)                 AeroDyn
     376  AB1N032Fx             (N/m)                 AeroDyn
     377  AB1N033Fx             (N/m)                 AeroDyn
     378  AB1N034Fx             (N/m)                 AeroDyn
     379  AB1N035Fx             (N/m)                 AeroDyn
     380  AB1N036Fx             (N/m)                 AeroDyn
     381  AB1N037Fx             (N/m)                 AeroDyn
     382  AB1N038Fx             (N/m)                 AeroDyn
     383  AB1N039Fx             (N/m)                 AeroDyn
     384  AB1N040Fx             (N/m)                 AeroDyn
     385  AB1N041Fx             (N/m)                 AeroDyn
     386  AB1N042Fx             (N/m)                 AeroDyn
     387  AB1N043Fx             (N/m)                 AeroDyn
     388  AB1N044Fx             (N/m)                 AeroDyn
     389  AB1N045Fx             (N/m)                 AeroDyn
     390  AB1N046Fx             (N/m)                 AeroDyn
     391  AB1N047Fx             (N/m)                 AeroDyn
     392  AB1N048Fx             (N/m)                 AeroDyn
     393  AB1N049Fx             (N/m)                 AeroDyn
     394  AB1N050Fx             (N/m)                 AeroDyn
     395  AB1N001Fy             (N/m)                 AeroDyn
     396  AB1N002Fy             (N/m)                 AeroDyn
     397  AB1N003Fy             (N/m)                 AeroDyn
     398  AB1N004Fy             (N/m)                 AeroDyn
     399  AB1N005Fy             (N/m)                 AeroDyn
     400  AB1N006Fy             (N/m)                 AeroDyn
     401  AB1N007Fy             (N/m)                 AeroDyn
     402  AB1N008Fy             (N/m)                 AeroDyn
     403  AB1N009Fy             (N/m)                 AeroDyn
     404  AB1N010Fy             (N/m)                 AeroDyn
     405  AB1N011Fy             (N/m)                 AeroDyn
     406  AB1N012Fy             (N/m)                 AeroDyn
     407  AB1N013Fy             (N/m)                 AeroDyn
     408  AB1N014Fy             (N/m)                 AeroDyn
     409  AB1N015Fy             (N/m)                 AeroDyn
     410  AB1N016Fy             (N/m)                 AeroDyn
     411  AB1N017Fy             (N/m)                 AeroDyn
     412  AB1N018Fy             (N/m)                 AeroDyn
     413  AB1N019Fy             (N/m)                 AeroDyn
     414  AB1N020Fy             (N/m)                 AeroDyn
     415  AB1N021Fy             (N/m)                 AeroDyn
     416  AB1N022Fy             (N/m)                 AeroDyn
     417  AB1N023Fy             (N/m)                 AeroDyn
     418  AB1N024Fy             (N/m)                 AeroDyn
     419  AB1N025Fy             (N/m)                 AeroDyn
     420  AB1N026Fy             (N/m)                 AeroDyn
     421  AB1N027Fy             (N/m)                 AeroDyn
     422  AB1N028Fy             (N/m)                 AeroDyn
     423  AB1N029Fy             (N/m)                 AeroDyn
     424  AB1N030Fy             (N/m)                 AeroDyn
     425  AB1N031Fy             (N/m)                 AeroDyn
     426  AB1N032Fy             (N/m)                 AeroDyn
     427  AB1N033Fy             (N/m)                 AeroDyn
     428  AB1N034Fy             (N/m)                 AeroDyn
     429  AB1N035Fy             (N/m)                 AeroDyn
     430  AB1N036Fy             (N/m)                 AeroDyn
     431  AB1N037Fy             (N/m)                 AeroDyn
     432  AB1N038Fy             (N/m)                 AeroDyn
     433  AB1N039Fy             (N/m)                 AeroDyn
     434  AB1N040Fy             (N/m)                 AeroDyn
     435  AB1N041Fy             (N/m)                 AeroDyn
     436  AB1N042Fy             (N/m)                 AeroDyn
     437  AB1N043Fy             (N/m)                 AeroDyn
     438  AB1N044Fy             (N/m)                 AeroDyn
     439  AB1N045Fy             (N/m)                 AeroDyn
     440  AB1N046Fy             (N/m)                 AeroDyn
     441  AB1N047Fy             (N/m)                 AeroDyn
     442  AB1N048Fy             (N/m)                 AeroDyn
     443  AB1N049Fy             (N/m)                 AeroDyn
     444  AB1N050Fy             (N/m)                 AeroDyn
